Process 0 of 4 is on gollum413.lsa.umich.edu - thread support 0
Process 1 of 4 is on gollum413.lsa.umich.edu - thread support 0
Process 2 of 4 is on gollum413.lsa.umich.edu - thread support 0
Process 3 of 4 is on gollum413.lsa.umich.edu - thread support 0
initial socket setup ...start
initial socket setup ...done 
now start server 0 ... 
                  Welcome to Q-Chem
     A Quantum Leap Into The Future Of Chemistry

 Q-Chem begins on Wed Feb  8 16:06:56 2017  

Host: gollum413.lsa.umich.edu
0

     Scratch files written to /tmp/7741901.satyr/qchem13896.0//
 Parallel job on  4  processors

Checking the input file for inconsistencies...	...done.

--------------------------------------------------------------
User input:
--------------------------------------------------------------
 $rem
 JOBTYPE SP
 EXCHANGE B3LYP
 CORRELATION NONE
 SCF_MAX_CYCLES 150
 BASIS 6-31G*

 nbo 1

print_orbitals 10
molden_format true
 $end

$molecule
0 1
 H     0.000000     0.000000     0.000000
 O     0.000000     0.000000     0.950000
 C     1.319934     0.000000     1.416662
 H     1.319939     0.000000     2.505662
 H     1.833293    -0.889165     1.053660
 H     1.833293     0.889165     1.053660
$end
--------------------------------------------------------------
 ----------------------------------------------------------------
             Standard Nuclear Orientation (Angstroms)
    I     Atom           X                Y                Z
 ----------------------------------------------------------------
    1      H       1.1423394976    -0.7302845339    -0.0000000000
    2      O       0.7336102377     0.1272936795    -0.0000000000
    3      C      -0.6586898207    -0.0193341972     0.0000000000
    4      H      -1.1272271385     0.9637190983     0.0000000000
    5      H      -0.9659276682    -0.5678894085    -0.8891650000
    6      H      -0.9659276682    -0.5678894085     0.8891650000
 ----------------------------------------------------------------
 Molecular Point Group                 Cs    NOp =  2
 Largest Abelian Subgroup              Cs    NOp =  2
 Nuclear Repulsion Energy =    40.7519805721 hartrees
 There are        9 alpha and        9 beta electrons
 Requested basis set is 6-31G(d)
 There are 16 shells and 38 basis functions

 Total QAlloc Memory Limit   2000 MB
 Mega-Array Size        61 MB
 MEM_STATIC part        62 MB

                       Distance Matrix (Angstroms)
             H (  1)   O (  2)   C (  3)   H (  4)   H (  5)
   O (  2)  0.950000
   C (  3)  1.936274  1.400000
   H (  4)  2.832063  2.040177  1.089000
   H (  5)  2.293856  2.040177  1.089001  1.778330
   H (  6)  2.293856  2.040177  1.089001  1.778330  1.778330
 
 A cutoff of  1.0D-08 yielded    136 shell pairs
 There are       795 function pairs
JobNum = 11
 
 -------------------------------------------------------
 OpenMP Integral Computing Module                       
 Release: version 1.0, May 2013, Q-Chem Inc. Pittsburgh 
 -------------------------------------------------------
 Integral Job Info:
 Integral job number is                      11
 Integral operator is                         1
 short-range coefficients               -999999
 long-range coefficients                -999999
 Omega coefficients                           0
 if combine SR and LR in K              -999999
 Integral screening is                        0
 Integral computing path is                   2
 max size of driver memory is            800000
 size of driver memory is                593474
 size of scratch memory is              2260544
 max col of scratch BK array               1296
 max len of scratch array in speh3          155
 max len of scratch index in speh4           18
 max int batch size is                      520
 min int batch size is                       52
 fixed nKL is                                52
 max L of basis functions is                  2
 order of int derivative is                   0
 number of shells is                         16
 number of basis is                          38
 number of cartesian basis is                38
 number of contracted shell pairs           136
 number of primitive shell pairs            629
 maxK2 (contraction) of shell pair           36
 max number of K2 of shell pair               1
 max number of CS2 of shell pair             17
 max number of PS2 of shell pair             90
 mem total for path MDJ                   10660
 -------------------------------------------------------
 Smallest overlap matrix eigenvalue = 9.21E-03

  Scale SEOQF with 1.000000e+00/1.000000e+00/1.000000e+00

 Standard Electronic Orientation quadrupole field applied
 Nucleus-field energy     =     0.0000000040 hartrees
 Guess from superposition of atomic densities
 Warning:  Energy on first SCF cycle will be non-variational
 A restricted hybrid HF-DFT SCF calculation will be
 performed using Pulay DIIS extrapolation
 Exchange:     0.2000 Hartree-Fock + 0.0800 Slater + 0.7200 Becke88
 Correlation:  0.8100 LYP + 0.1900 VWN1RPA
 Using SG-1 standard quadrature grid
 SCF converges when DIIS error is below 1.0E-05
 CPU 0.00 s  wall 0.00 s
 ---------------------------------------
  Cycle       Energy         DIIS Error
 ---------------------------------------
    1    -115.8915806579      1.24E-01
 CPU 0.00 s  wall 0.00 s
    2    -115.6518542226      2.00E-02
 CPU 0.00 s  wall 0.00 s
    3    -115.6240880075      2.53E-02
 CPU 0.00 s  wall 0.00 s
    4    -115.7117055784      2.18E-03
 CPU 0.00 s  wall 0.00 s
    5    -115.7123171454      8.41E-04
 CPU 0.00 s  wall 0.00 s
    6    -115.7124216567      1.04E-04
 CPU 0.00 s  wall 0.00 s
    7    -115.7124239102      5.48E-06 Convergence criterion met
 ---------------------------------------
 SCF time:  CPU 4.17 s  wall 8.53 s
 SCF   energy in the final basis set = -115.7124239102
 Total energy in the final basis set = -115.7124239102
 Analysis of SCF Wavefunction
 
 --------------------------------------------------------------
             Orbital Energies (a.u.) and Symmetries
 --------------------------------------------------------------
 
 Alpha MOs, Restricted
 -- Occupied --                  
-19.133 -10.221  -1.017  -0.681  -0.505  -0.440  -0.427  -0.324
  1 A'    2 A'    3 A'    4 A'    5 A'    1 A"    6 A'    7 A'                 
 -0.260
  2 A"                                                                         
 -- Virtual --                   
  0.078   0.136   0.174   0.177   0.211   0.543   0.570   0.572
  8 A'    9 A'   10 A'    3 A"   11 A'   12 A'   13 A'    4 A"                 
  0.793   0.859   0.874   0.913   0.958   0.972   1.027   1.125
 14 A'    5 A"   15 A'   16 A'   17 A'    6 A"   18 A'   19 A'                 
  1.462   1.493   1.604   1.744   2.071   2.105   2.190   2.370
 20 A'    7 A"   21 A'    8 A"   22 A'   23 A'    9 A"   24 A'                 
  2.396   2.476   2.805   3.716   4.219
 10 A"   25 A'   26 A'   27 A'   28 A'                                         
 
 Beta MOs, Restricted
 -- Occupied --                  
-19.133 -10.221  -1.017  -0.681  -0.505  -0.440  -0.427  -0.324
  1 A'    2 A'    3 A'    4 A'    5 A'    1 A"    6 A'    7 A'                 
 -0.260
  2 A"                                                                         
 -- Virtual --                   
  0.078   0.136   0.174   0.177   0.211   0.543   0.570   0.572
  8 A'    9 A'   10 A'    3 A"   11 A'   12 A'   13 A'    4 A"                 
  0.793   0.859   0.874   0.913   0.958   0.972   1.027   1.125
 14 A'    5 A"   15 A'   16 A'   17 A'    6 A"   18 A'   19 A'                 
  1.462   1.493   1.604   1.744   2.071   2.105   2.190   2.370
 20 A'    7 A"   21 A'    8 A"   22 A'   23 A'    9 A"   24 A'                 
  2.396   2.476   2.805   3.716   4.219
 10 A"   25 A'   26 A'   27 A'   28 A'                                         
 --------------------------------------------------------------
 

                        RESTRICTED (RHF) MOLECULAR ORBITAL COEFFICIENTS
                         1         2         3         4         5         6
 eigenvalues:        -19.133   -10.221    -1.017    -0.681    -0.505    -0.440
   1  H 1   s        0.00040   0.00003   0.13377  -0.12878  -0.20733   0.00000
   2  H 1   s       -0.00111   0.00035   0.00064  -0.03791  -0.12726   0.00000
   3  O     s        0.99278  -0.00012  -0.20174   0.06003  -0.04312  -0.00000
   4  O     s        0.02607  -0.00018   0.44945  -0.13811   0.09906   0.00000
   5  O     px      -0.00043   0.00015  -0.05957  -0.19731  -0.28767   0.00000
   6  O     py      -0.00097  -0.00003  -0.10274   0.10162   0.31588   0.00000
   7  O     pz       0.00000  -0.00000   0.00000  -0.00000   0.00000   0.25641
   8  O     s        0.01134   0.00194   0.41859  -0.17114   0.15474   0.00000
   9  O     px      -0.00037  -0.00011  -0.02641  -0.09407  -0.13159   0.00000
  10  O     py       0.00010   0.00017  -0.04726   0.04667   0.16483   0.00000
  11  O     pz      -0.00000   0.00000   0.00000   0.00000   0.00000   0.16185
  12  O     dxx     -0.00802  -0.00080   0.00991   0.01557   0.00996  -0.00000
  13  O     dxy     -0.00002  -0.00007  -0.00524   0.01295   0.00457  -0.00000
  14  O     dyy     -0.00797  -0.00009   0.01504  -0.01456  -0.02729  -0.00000
  15  O     dxz      0.00000  -0.00000  -0.00000  -0.00000  -0.00000  -0.01343
  16  O     dyz      0.00000  -0.00000  -0.00000   0.00000  -0.00000  -0.01359
  17  O     dzz     -0.00793  -0.00004  -0.00985   0.00147   0.00176  -0.00000
  18  C     s        0.00001   0.99287  -0.07631  -0.17911   0.02914  -0.00000
  19  C     s        0.00031   0.04918   0.14251   0.35992  -0.05489   0.00000
  20  C     px       0.00037   0.00062   0.10670  -0.06102   0.23406  -0.00000
  21  C     py       0.00011   0.00003   0.00386   0.01246   0.21516   0.00000
  22  C     pz      -0.00000   0.00000  -0.00000   0.00000   0.00000   0.42502
  23  C     s       -0.00182  -0.01381   0.06231   0.32284  -0.07066  -0.00000
  24  C     px      -0.00090   0.00030   0.00288  -0.03480   0.07876  -0.00000
  25  C     py      -0.00050   0.00008  -0.00658  -0.00547   0.09827   0.00000
  26  C     pz       0.00000  -0.00000   0.00000  -0.00000   0.00000   0.17776
  27  C     dxx      0.00024  -0.00896   0.02063  -0.01202   0.02256  -0.00000
  28  C     dxy      0.00004   0.00000   0.00084   0.00094   0.01049  -0.00000
  29  C     dyy     -0.00001  -0.00919  -0.00765   0.00422  -0.00503   0.00000
  30  C     dxz      0.00000  -0.00000  -0.00000  -0.00000   0.00000  -0.00231
  31  C     dyz     -0.00000   0.00000   0.00000   0.00000  -0.00000  -0.01967
  32  C     dzz      0.00003  -0.00921  -0.00806   0.00211  -0.01774  -0.00000
  33  H 2   s        0.00013  -0.00015   0.02456   0.14071   0.01579   0.00000
  34  H 2   s        0.00022   0.00265   0.00596   0.04260   0.00455   0.00000
  35  H 3   s        0.00004  -0.00014   0.02624   0.13030  -0.11940  -0.20252
  36  H 3   s       -0.00001   0.00269   0.00107   0.03447  -0.07189  -0.16189
  37  H 4   s        0.00004  -0.00014   0.02624   0.13030  -0.11940   0.20252
  38  H 4   s       -0.00001   0.00269   0.00107   0.03447  -0.07189   0.16189
                         7         8         9        10        11        12
 eigenvalues:         -0.427    -0.324    -0.260     0.078     0.136     0.174
   1  H 1   s        0.05051  -0.14438   0.00000   0.11016  -0.07296  -0.02155
   2  H 1   s        0.04907  -0.11113   0.00000   1.21484  -0.62794   0.00124
   3  O     s       -0.02831  -0.06588   0.00000   0.08930  -0.05355   0.01634
   4  O     s        0.05358   0.12716  -0.00000  -0.11085   0.03947  -0.01268
   5  O     px       0.32006   0.22033  -0.00000  -0.02324  -0.04782   0.08593
   6  O     py       0.11885   0.43028  -0.00000   0.23396  -0.12694   0.08667
   7  O     pz      -0.00000   0.00000   0.59551  -0.00000  -0.00000   0.00000
   8  O     s        0.12685   0.32544  -0.00000  -1.12167   0.77279  -0.29076
   9  O     px       0.18275   0.15987  -0.00000  -0.03105  -0.15728   0.16620
  10  O     py       0.07510   0.29462  -0.00000   0.42815  -0.21914   0.22747
  11  O     pz      -0.00000   0.00000   0.46904  -0.00000  -0.00000  -0.00000
  12  O     dxx     -0.00546  -0.00701  -0.00000   0.03611  -0.03951   0.00409
  13  O     dxy     -0.02665  -0.01039  -0.00000  -0.00283   0.00617   0.01145
  14  O     dyy     -0.00490  -0.03384  -0.00000   0.02334  -0.01957   0.00886
  15  O     dxz      0.00000   0.00000  -0.00598   0.00000   0.00000  -0.00000
  16  O     dyz      0.00000  -0.00000  -0.02525   0.00000   0.00000   0.00000
  17  O     dzz     -0.00052   0.00063  -0.00000   0.04853  -0.03149   0.00627
  18  C     s        0.00102   0.01327   0.00000   0.03951   0.14860  -0.02260
  19  C     s       -0.00224  -0.03418  -0.00000  -0.04166  -0.20325   0.01415
  20  C     px      -0.27417  -0.12318  -0.00000   0.19811   0.08540   0.09329
  21  C     py       0.31815  -0.26130   0.00000   0.08123  -0.04165  -0.41380
  22  C     pz      -0.00000  -0.00000  -0.18309   0.00000  -0.00000   0.00000
  23  C     s       -0.00276  -0.02518   0.00000  -0.73484  -2.38311   0.36946
  24  C     px      -0.11467  -0.04385   0.00000   0.55722   0.20316   0.43055
  25  C     py       0.16335  -0.07827   0.00000   0.15954  -0.11261  -1.30975
  26  C     pz      -0.00000   0.00000  -0.04015   0.00000   0.00000   0.00000
  27  C     dxx     -0.01513  -0.01126  -0.00000  -0.00897   0.01502  -0.00782
  28  C     dxy     -0.01252   0.02577  -0.00000   0.00343  -0.00275  -0.00775
  29  C     dyy      0.02123  -0.00277  -0.00000   0.01672   0.00404   0.01744
  30  C     dxz     -0.00000   0.00000   0.03260   0.00000   0.00000  -0.00000
  31  C     dyz      0.00000  -0.00000   0.01544  -0.00000  -0.00000   0.00000
  32  C     dzz     -0.00267   0.01665  -0.00000   0.01050   0.00693  -0.01247
  33  H 2   s        0.24630  -0.16439   0.00000   0.00234   0.04034   0.10407
  34  H 2   s        0.17991  -0.17313   0.00000   0.28432   1.27187   1.69926
  35  H 3   s       -0.04699   0.11298   0.14864   0.01636   0.01892  -0.04257
  36  H 3   s       -0.02823   0.13461   0.18775   0.53840   0.99480  -0.93933
  37  H 4   s       -0.04699   0.11298  -0.14864   0.01636   0.01892  -0.04257
  38  H 4   s       -0.02823   0.13461  -0.18775   0.53840   0.99480  -0.93933
                        13        14        15        16        17        18
 eigenvalues:          0.177     0.211     0.543     0.570     0.572     0.793
   1  H 1   s       -0.00000  -0.05468  -0.07105   0.11926  -0.00001   0.85289
   2  H 1   s       -0.00000  -0.93640   0.20623   0.18191  -0.00001  -0.56374
   3  O     s       -0.00000   0.04954   0.01252   0.01338  -0.00000   0.02024
   4  O     s        0.00000  -0.05705  -0.17740  -0.17368   0.00001   0.00053
   5  O     px      -0.00000   0.38771   0.29945  -0.05979   0.00000   0.12070
   6  O     py      -0.00000  -0.13363   0.07581  -0.05174   0.00000   0.29895
   7  O     pz      -0.09201  -0.00000   0.00000  -0.00001  -0.20189  -0.00000
   8  O     s        0.00000  -0.72442   0.76151   0.25135  -0.00001  -0.01971
   9  O     px      -0.00000   0.90027  -0.16069   0.01139  -0.00000  -0.40960
  10  O     py      -0.00000  -0.26113   0.00212  -0.18277   0.00001   0.14093
  11  O     pz      -0.23401   0.00000   0.00000  -0.00001  -0.19621   0.00000
  12  O     dxx     -0.00000   0.00258   0.11982  -0.02516   0.00000   0.03781
  13  O     dxy     -0.00000  -0.01274   0.00662  -0.00903   0.00000  -0.13762
  14  O     dyy     -0.00000   0.02614  -0.09111  -0.05097   0.00000   0.10868
  15  O     dxz     -0.01066   0.00000  -0.00000   0.00000   0.01050  -0.00000
  16  O     dyz      0.01460   0.00000  -0.00000   0.00000   0.02323  -0.00000
  17  O     dzz     -0.00000   0.02482  -0.08524  -0.05105   0.00000  -0.05250
  18  C     s        0.00000  -0.06383  -0.03645  -0.00611   0.00000   0.00068
  19  C     s        0.00000   0.08348   0.37661   0.05802  -0.00000  -0.01643
  20  C     px      -0.00000   0.28536   0.95292   0.25715  -0.00001   0.00149
  21  C     py       0.00000   0.07598   0.20818  -0.71795   0.00004   0.51269
  22  C     pz       0.45135  -0.00000   0.00000  -0.00004  -0.74245   0.00000
  23  C     s       -0.00000   0.88851  -0.42007  -0.05468  -0.00000  -0.16597
  24  C     px      -0.00000   1.34439  -1.34192  -0.51885   0.00002   0.06365
  25  C     py      -0.00000   0.42871  -0.37818   1.69084  -0.00009  -1.02313
  26  C     pz       1.35833   0.00000  -0.00001   0.00010   1.78463  -0.00000
  27  C     dxx      0.00000  -0.02760  -0.06235   0.00079  -0.00000  -0.10639
  28  C     dxy     -0.00000  -0.01030  -0.02073   0.04939  -0.00000   0.12936
  29  C     dyy      0.00000   0.01106   0.03545  -0.08217   0.00000  -0.00133
  30  C     dxz     -0.00110   0.00000   0.00000   0.00000   0.01371   0.00000
  31  C     dyz      0.01542   0.00000  -0.00000   0.00001   0.10865   0.00000
  32  C     dzz     -0.00000   0.02602   0.00743   0.08657  -0.00000   0.06590
  33  H 2   s        0.00000   0.03099  -0.00250  -0.49150   0.00003  -0.36552
  34  H 2   s       -0.00000  -0.24894  -0.02141  -0.48351   0.00003   1.07603
  35  H 3   s        0.07016   0.06945  -0.12125   0.19155   0.39100   0.33229
  36  H 3   s        1.55870   0.24148  -0.10048   0.19543   0.44294  -0.55352
  37  H 4   s       -0.07016   0.06945  -0.12125   0.19151  -0.39102   0.33229
  38  H 4   s       -1.55870   0.24148  -0.10048   0.19538  -0.44296  -0.55352
                        19
 eigenvalues:          0.859
   1  H 1   s       -0.00000
   2  H 1   s        0.00000
   3  O     s       -0.00000
   4  O     s        0.00000
   5  O     px      -0.00000
   6  O     py       0.00000
   7  O     pz      -0.25504
   8  O     s       -0.00000
   9  O     px       0.00000
  10  O     py      -0.00000
  11  O     pz       0.34317
  12  O     dxx      0.00000
  13  O     dxy      0.00000
  14  O     dyy      0.00000
  15  O     dxz     -0.08609
  16  O     dyz     -0.02110
  17  O     dzz      0.00000
  18  C     s        0.00000
  19  C     s       -0.00000
  20  C     px       0.00000
  21  C     py      -0.00000
  22  C     pz       0.82521
  23  C     s       -0.00000
  24  C     px      -0.00000
  25  C     py       0.00000
  26  C     pz      -1.40729
  27  C     dxx     -0.00000
  28  C     dxy     -0.00000
  29  C     dyy      0.00000
  30  C     dxz      0.11491
  31  C     dyz      0.15164
  32  C     dzz     -0.00000
  33  H 2   s        0.00000
  34  H 2   s       -0.00000
  35  H 3   s        0.67883
  36  H 3   s       -1.43527
  37  H 4   s       -0.67883
  38  H 4   s        1.43528
 
          Ground-State Mulliken Net Atomic Charges

     Atom                 Charge (a.u.)
  ----------------------------------------
      1 H                     0.392838
      2 O                    -0.611983
      3 C                    -0.198954
      4 H                     0.160691
      5 H                     0.128704
      6 H                     0.128704
  ----------------------------------------
  Sum of atomic charges =    -0.000000

 -----------------------------------------------------------------
                    Cartesian Multipole Moments
 -----------------------------------------------------------------
    Charge (ESU x 10^10)
                -0.0000
    Dipole Moment (Debye)
         X      -0.6939      Y      -1.5162      Z       0.0000
       Tot       1.6674
    Quadrupole Moments (Debye-Ang)
        XX     -12.5245     XY      -2.3105     YY     -12.0170
        XZ       0.0000     YZ      -0.0000     ZZ     -13.5011
    Octopole Moments (Debye-Ang^2)
       XXX       4.8391    XXY      -2.0193    XYY       1.7636
       YYY      -0.4902    XXZ      -0.0000    XYZ       0.0000
       YYZ       0.0000    XZZ       0.7088    YZZ      -0.5177
       ZZZ      -0.0000
    Hexadecapole Moments (Debye-Ang^3)
      XXXX     -57.7947   XXXY      -3.9251   XXYY     -11.8271
      XYYY      -2.6484   YYYY     -19.2461   XXXZ       0.0000
      XXYZ       0.0000   XYYZ      -0.0000   YYYZ       0.0000
      XXZZ     -13.5377   XYZZ      -0.0373   YYZZ      -6.4417
      XZZZ       0.0000   YZZZ       0.0000   ZZZZ     -18.8378
 -----------------------------------------------------------------

 Begin NBO analysis for the ground state 


 *********************************** NBO 5.0 ***********************************
             N A T U R A L   A T O M I C   O R B I T A L   A N D
          N A T U R A L   B O N D   O R B I T A L   A N A L Y S I S
 *******************************************************************************
  (c) Copyright 1996-2002 Board of Regents of the University of Wisconsin System
      on behalf of the Theoretical Chemistry Institute.  All Rights Reserved.

          Cite this program as:

          NBO 5.0.  E. D. Glendening, J. K. Badenhoop, A. E. Reed,
          J. E. Carpenter, J. A. Bohmann, C. M. Morales, and F. Weinhold
          (Theoretical Chemistry Institute, University of Wisconsin,
          Madison, WI, 2001); http://www.chem.wisc.edu/~nbo5

       /PRINT  / : Print level set to  1
  This is a closed-shell NBO calculation

 Job title: Starting NBO analysis.                                          

 Storage needed:        7456 in NPA,        5941 in NBO (     7745171 available)


 NATURAL POPULATIONS:  Natural atomic orbital occupancies 
                                                          
  NAO Atom No lang   Type(AO)    Occupancy      Energy    
 ---------------------------------------------------------
   1    H  1  s      Val( 1s)     0.53193       0.16267
   2    H  1  s      Ryd( 2s)     0.00175       0.62545
 
   3    O  2  s      Cor( 1s)     1.99985     -18.95327
   4    O  2  s      Val( 2s)     1.67634      -0.85721
   5    O  2  s      Ryd( 3s)     0.00126       1.50223
   6    O  2  s      Ryd( 4s)     0.00003       3.64686
   7    O  2  px     Val( 2p)     1.44235      -0.26377
   8    O  2  px     Ryd( 3p)     0.00187       1.12445
   9    O  2  py     Val( 2p)     1.65130      -0.27181
  10    O  2  py     Ryd( 3p)     0.00139       1.10559
  11    O  2  pz     Val( 2p)     1.96175      -0.27915
  12    O  2  pz     Ryd( 3p)     0.00212       0.97804
  13    O  2  dxy    Ryd( 3d)     0.00202       2.10803
  14    O  2  dxz    Ryd( 3d)     0.00062       1.96279
  15    O  2  dyz    Ryd( 3d)     0.00168       1.77284
  16    O  2  dx2y2  Ryd( 3d)     0.00274       2.38696
  17    O  2  dz2    Ryd( 3d)     0.00202       2.13375
 
  18    C  3  s      Cor( 1s)     1.99951     -10.11014
  19    C  3  s      Val( 2s)     1.08996      -0.25610
  20    C  3  s      Ryd( 3s)     0.00208       1.09997
  21    C  3  s      Ryd( 4s)     0.00004       4.15953
  22    C  3  px     Val( 2p)     0.76517      -0.05687
  23    C  3  px     Ryd( 3p)     0.00286       0.54217
  24    C  3  py     Val( 2p)     1.21903      -0.08020
  25    C  3  py     Ryd( 3p)     0.00123       0.58658
  26    C  3  pz     Val( 2p)     1.20609      -0.07461
  27    C  3  pz     Ryd( 3p)     0.00008       0.59650
  28    C  3  dxy    Ryd( 3d)     0.00147       2.02494
  29    C  3  dxz    Ryd( 3d)     0.00182       1.91790
  30    C  3  dyz    Ryd( 3d)     0.00123       2.05982
  31    C  3  dx2y2  Ryd( 3d)     0.00156       2.13873
  32    C  3  dz2    Ryd( 3d)     0.00115       2.07919
 
  33    H  4  s      Val( 1s)     0.78918       0.08280
  34    H  4  s      Ryd( 2s)     0.00081       0.62560
 
  35    H  5  s      Val( 1s)     0.81622       0.06991
  36    H  5  s      Ryd( 2s)     0.00162       0.63234
 
  37    H  6  s      Val( 1s)     0.81622       0.06991
  38    H  6  s      Ryd( 2s)     0.00162       0.63234


 Summary of Natural Population Analysis:

                                     Natural Population
             Natural    ---------------------------------------------
  Atom No    Charge        Core      Valence    Rydberg      Total
 --------------------------------------------------------------------
    H  1    0.46632      0.00000     0.53193    0.00175     0.53368
    O  2   -0.74734      1.99985     6.73175    0.01575     8.74734
    C  3   -0.29329      1.99951     4.28025    0.01353     6.29329
    H  4    0.21001      0.00000     0.78918    0.00081     0.78999
    H  5    0.18215      0.00000     0.81622    0.00162     0.81785
    H  6    0.18215      0.00000     0.81622    0.00162     0.81785
 ====================================================================
 * Total * -0.00000      3.99936    13.96555    0.03509    18.00000

                                 Natural Population      
 --------------------------------------------------------
   Core                       3.99936 ( 99.9841% of   4)
   Valence                   13.96555 ( 99.7539% of  14)
   Natural Minimal Basis     17.96491 ( 99.8051% of  18)
   Natural Rydberg Basis      0.03509 (  0.1949% of  18)
 --------------------------------------------------------

    Atom No         Natural Electron Configuration
 ----------------------------------------------------------------------------
      H  1            1s( 0.53)
      O  2      [core]2s( 1.68)2p( 5.06)3p( 0.01)3d( 0.01)
      C  3      [core]2s( 1.09)2p( 3.19)3d( 0.01)
      H  4            1s( 0.79)
      H  5            1s( 0.82)
      H  6            1s( 0.82)


 NATURAL BOND ORBITAL ANALYSIS:

                       Occupancies       Lewis Structure    Low   High
           Occ.    -------------------  -----------------   occ   occ
  Cycle   Thresh.   Lewis   Non-Lewis     CR  BD  3C  LP    (L)   (NL)   Dev
 =============================================================================
   1(1)    1.90    17.92610   0.07390      2   5   0   2     0      0    0.03
 -----------------------------------------------------------------------------

 Structure accepted: No low occupancy Lewis orbitals

 --------------------------------------------------------
   Core                      3.99936 ( 99.984% of   4)
   Valence Lewis            13.92673 ( 99.477% of  14)
  ==================       ============================
   Total Lewis              17.92610 ( 99.589% of  18)
  -----------------------------------------------------
   Valence non-Lewis         0.06026 (  0.335% of  18)
   Rydberg non-Lewis         0.01365 (  0.076% of  18)
  ==================       ============================
   Total non-Lewis           0.07390 (  0.411% of  18)
 --------------------------------------------------------


     (Occupancy)   Bond orbital/ Coefficients/ Hybrids
 -------------------------------------------------------------------------------
   1. (1.99051) BD ( 1) H  1- O  2       
               ( 26.50%)   0.5148* H  1 s(100.00%)
                                         1.0000 -0.0034
               ( 73.50%)   0.8573* O  2 s( 21.38%)p 3.67( 78.41%)d 0.01(  0.21%)
                                        -0.0001  0.4620  0.0183  0.0025  0.4093
                                         0.0343 -0.7844 -0.0130  0.0000 -0.0000
                                        -0.0134  0.0000 -0.0000 -0.0350 -0.0258
   2. (1.99904) BD ( 1) O  2- C  3       
               ( 66.60%)   0.8161* O  2 s( 30.85%)p 2.24( 68.99%)d 0.00(  0.15%)
                                        -0.0000 -0.5553 -0.0113  0.0036  0.8240
                                         0.0090  0.1037 -0.0082  0.0000 -0.0000
                                        -0.0193  0.0000 -0.0000 -0.0224  0.0256
               ( 33.40%)   0.5779* C  3 s( 21.55%)p 3.63( 78.25%)d 0.01(  0.20%)
                                        -0.0001 -0.4619 -0.0465 -0.0029 -0.8796
                                        -0.0507 -0.0772 -0.0158 -0.0000  0.0000
                                        -0.0039  0.0000 -0.0000 -0.0380  0.0224
   3. (1.99216) BD ( 1) C  3- H  4       
               ( 60.78%)   0.7796* C  3 s( 26.81%)p 2.73( 73.09%)d 0.00(  0.09%)
                                        -0.0001  0.5178 -0.0033 -0.0001 -0.3403
                                         0.0076  0.7842 -0.0114 -0.0000  0.0000
                                        -0.0201 -0.0000  0.0000 -0.0189 -0.0136
               ( 39.22%)   0.6263* H  4 s(100.00%)
                                         1.0000  0.0021
   4. (1.99837) BD ( 1) C  3- H  5       
               ( 59.77%)   0.7731* C  3 s( 25.90%)p 2.86( 73.99%)d 0.00(  0.10%)
                                         0.0001  0.5088 -0.0109 -0.0006 -0.2277
                                        -0.0049 -0.4344  0.0076 -0.7066  0.0056
                                         0.0070  0.0130  0.0225 -0.0072  0.0159
               ( 40.23%)   0.6343* H  5 s(100.00%)
                                         1.0000  0.0042
   5. (1.99837) BD ( 1) C  3- H  6       
               ( 59.77%)   0.7731* C  3 s( 25.90%)p 2.86( 73.99%)d 0.00(  0.10%)
                                         0.0001  0.5088 -0.0109 -0.0006 -0.2277
                                        -0.0049 -0.4344  0.0076  0.7066 -0.0056
                                         0.0070 -0.0130 -0.0225 -0.0072  0.0159
               ( 40.23%)   0.6343* H  6 s(100.00%)
                                         1.0000  0.0042
   6. (1.99985) CR ( 1) O  2             s(100.00%)
                                         1.0000  0.0000  0.0000  0.0000  0.0001
                                         0.0000 -0.0001 -0.0000  0.0000 -0.0000
                                        -0.0000 -0.0000 -0.0000 -0.0000 -0.0000
   7. (1.99951) CR ( 1) C  3             s(100.00%)p 0.00(  0.00%)
                                         1.0000 -0.0001 -0.0000 -0.0000 -0.0001
                                        -0.0000  0.0001 -0.0000  0.0000  0.0000
                                        -0.0000  0.0000 -0.0000 -0.0000 -0.0000
   8. (1.98378) LP ( 1) O  2             s( 47.77%)p 1.09( 52.16%)d 0.00(  0.08%)
                                         0.0000  0.6910 -0.0151  0.0007  0.3882
                                        -0.0017  0.6089 -0.0088 -0.0000  0.0000
                                        -0.0240  0.0000  0.0000  0.0119  0.0085
   9. (1.96451) LP ( 2) O  2             s(  0.00%)p 1.00( 99.89%)d 0.00(  0.11%)
                                        -0.0000  0.0000  0.0000 -0.0000  0.0000
                                         0.0000  0.0000  0.0000  0.9993 -0.0166
                                        -0.0000 -0.0167 -0.0292  0.0000  0.0000
  10. (0.00176) RY*( 1) H  1             s(100.00%)
                                         0.0034  1.0000
  11. (0.00167) RY*( 1) O  2             s(  0.00%)p 1.00( 95.00%)d 0.05(  5.00%)
                                        -0.0000 -0.0000 -0.0000 -0.0000 -0.0000
                                        -0.0000 -0.0000 -0.0000  0.0107  0.9746
                                         0.0000 -0.2138 -0.0657 -0.0000  0.0000
  12. (0.00111) RY*( 2) O  2             s(  9.60%)p 8.14( 78.11%)d 1.28( 12.29%)
                                        -0.0000 -0.0020  0.3087  0.0256  0.0051
                                         0.1119  0.0075  0.8767 -0.0000  0.0000
                                        -0.3348 -0.0000 -0.0000  0.0169 -0.1028
  13. (0.00007) RY*( 3) O  2             s( 67.56%)p 0.41( 27.47%)d 0.07(  4.97%)
  14. (0.00004) RY*( 4) O  2             s(  4.68%)p13.74( 64.31%)d 6.62( 31.01%)
  15. (0.00000) RY*( 5) O  2             s( 99.52%)p 0.00(  0.24%)d 0.00(  0.23%)
  16. (0.00000) RY*( 6) O  2             s( 11.30%)p 1.30( 14.64%)d 6.55( 74.06%)
  17. (0.00000) RY*( 7) O  2             s(  0.00%)p 1.00(  4.62%)d20.64( 95.38%)
  18. (0.00000) RY*( 8) O  2             s(  0.00%)p 1.00(  0.50%)d99.99( 99.50%)
  19. (0.00000) RY*( 9) O  2             s(  4.80%)p 1.92(  9.24%)d17.90( 85.95%)
  20. (0.00001) RY*(10) O  2             s(  2.54%)p 2.53(  6.42%)d35.90( 91.04%)
  21. (0.00226) RY*( 1) C  3             s( 18.44%)p 3.85( 70.98%)d 0.57( 10.58%)
                                         0.0000 -0.0236  0.4114 -0.1208 -0.0587
                                         0.6551 -0.0135  0.5263 -0.0000  0.0000
                                        -0.3090 -0.0000 -0.0000  0.0890 -0.0491
  22. (0.00166) RY*( 2) C  3             s(  0.00%)p 1.00(  0.28%)d99.99( 99.72%)
                                         0.0000 -0.0000  0.0000 -0.0000 -0.0000
                                         0.0000 -0.0000  0.0000  0.0242 -0.0468
                                        -0.0000  0.9764  0.2094  0.0000 -0.0000
  23. (0.00094) RY*( 3) C  3             s(  1.71%)p 8.17( 13.94%)d49.40( 84.35%)
                                        -0.0000  0.0053  0.1197  0.0520  0.0222
                                        -0.2192 -0.0247 -0.3004 -0.0000  0.0000
                                        -0.8910 -0.0000  0.0000 -0.2117 -0.0696
  24. (0.00004) RY*( 4) C  3             s(  8.77%)p 9.96( 87.31%)d 0.45(  3.92%)
  25. (0.00000) RY*( 5) C  3             s(  0.00%)p 1.00( 99.77%)d 0.00(  0.23%)
  26. (0.00000) RY*( 6) C  3             s( 75.47%)p 0.26( 19.52%)d 0.07(  5.01%)
  27. (0.00000) RY*( 7) C  3             s( 94.97%)p 0.05(  4.99%)d 0.00(  0.04%)
  28. (0.00000) RY*( 8) C  3             s(  0.00%)p 1.00(  0.08%)d99.99( 99.92%)
  29. (0.00000) RY*( 9) C  3             s(  0.08%)p29.61(  2.49%)d99.99( 97.43%)
  30. (0.00000) RY*(10) C  3             s(  0.39%)p 3.33(  1.30%)d99.99( 98.31%)
  31. (0.00082) RY*( 1) H  4             s(100.00%)
                                        -0.0021  1.0000
  32. (0.00164) RY*( 1) H  5             s(100.00%)
                                        -0.0042  1.0000
  33. (0.00164) RY*( 1) H  6             s(100.00%)
                                        -0.0042  1.0000
  34. (0.00610) BD*( 1) H  1- O  2       
               ( 73.50%)   0.8573* H  1 s(100.00%)
                                         1.0000 -0.0034
               ( 26.50%)  -0.5148* O  2 s( 21.38%)p 3.67( 78.41%)d 0.01(  0.21%)
                                        -0.0001  0.4620  0.0183  0.0025  0.4093
                                         0.0343 -0.7844 -0.0130  0.0000 -0.0000
                                        -0.0134  0.0000 -0.0000 -0.0350 -0.0258
  35. (0.00055) BD*( 1) O  2- C  3       
               ( 33.40%)   0.5779* O  2 s( 30.85%)p 2.24( 68.99%)d 0.00(  0.15%)
                                         0.0000  0.5553  0.0113 -0.0036 -0.8240
                                        -0.0090 -0.1037  0.0082 -0.0000  0.0000
                                         0.0193 -0.0000  0.0000  0.0224 -0.0256
               ( 66.60%)  -0.8161* C  3 s( 21.55%)p 3.63( 78.25%)d 0.01(  0.20%)
                                         0.0001  0.4619  0.0465  0.0029  0.8796
                                         0.0507  0.0772  0.0158  0.0000 -0.0000
                                         0.0039 -0.0000  0.0000  0.0380 -0.0224
  36. (0.01288) BD*( 1) C  3- H  4       
               ( 39.22%)   0.6263* C  3 s( 26.81%)p 2.73( 73.09%)d 0.00(  0.09%)
                                         0.0001 -0.5178  0.0033  0.0001  0.3403
                                        -0.0076 -0.7842  0.0114  0.0000 -0.0000
                                         0.0201  0.0000 -0.0000  0.0189  0.0136
               ( 60.78%)  -0.7796* H  4 s(100.00%)
                                        -1.0000 -0.0021
  37. (0.02036) BD*( 1) C  3- H  5       
               ( 40.23%)   0.6343* C  3 s( 25.90%)p 2.86( 73.99%)d 0.00(  0.10%)
                                        -0.0001 -0.5088  0.0109  0.0006  0.2277
                                         0.0049  0.4344 -0.0076  0.7066 -0.0056
                                        -0.0070 -0.0130 -0.0225  0.0072 -0.0159
               ( 59.77%)  -0.7731* H  5 s(100.00%)
                                        -1.0000 -0.0042
  38. (0.02036) BD*( 1) C  3- H  6       
               ( 40.23%)   0.6343* C  3 s( 25.90%)p 2.86( 73.99%)d 0.00(  0.10%)
                                        -0.0001 -0.5088  0.0109  0.0006  0.2277
                                         0.0049  0.4344 -0.0076 -0.7066  0.0056
                                        -0.0070  0.0130  0.0225  0.0072 -0.0159
               ( 59.77%)  -0.7731* H  6 s(100.00%)
                                        -1.0000 -0.0042
 SVNBO: NDIM =           38
 NBO state            0

 *******************************************************************************
Archival summary:
1\1\gollum413.lsa.umich.edu\SP\ProcedureUnspecified\6-31G*\114\ericwalk\WedFeb816:07:052017WedFeb816:07:052017\0\\#,ProcedureUnspecified,6-31G*,\\0,1\O\H,1,0.95\C,1,1.4,2,109.471\H,3,1.089,1,109.471,2,-180,0\H,3,1.089,1,109.471,2,-60,0\H,3,1.089,1,109.471,2,60,0\\\@

 Total job time:  9.11s(wall), 4.54s(cpu) 
 Wed Feb  8 16:07:05 2017

======= MOLDEN-FORMATTED INPUT FILE FOLLOWS =======
[Molden Format]
[Atoms] (Angs)
  H      1    1      1.14233950     -0.73028453     -0.00000000
  O      2    8      0.73361024      0.12729368     -0.00000000
  C      3    6     -0.65868982     -0.01933420      0.00000000
  H      4    1     -1.12722714      0.96371910      0.00000000
  H      5    1     -0.96592767     -0.56788941     -0.88916500
  H      6    1     -0.96592767     -0.56788941      0.88916500
[GTO]
1    0
S    3    1.000000
   1.87311370E+01    3.34946000E-02 
   2.82539370E+00    2.34726950E-01 
   6.40121700E-01    8.13757330E-01 
S    1    1.000000
   1.61277800E-01    1.00000000E+00 

2    0
S    6    1.000000
   5.48467170E+03    1.83110000E-03 
   8.25234950E+02    1.39501000E-02 
   1.88046960E+02    6.84451000E-02 
   5.29645000E+01    2.32714300E-01 
   1.68975700E+01    4.70193000E-01 
   5.79963530E+00    3.58520900E-01 
SP   3    1.000000
   1.55396160E+01   -1.10777500E-01   7.08743000E-02 
   3.59993360E+00   -1.48026300E-01   3.39752800E-01 
   1.01376180E+00    1.13076700E+00   7.27158600E-01 
SP   1    1.000000
   2.70005800E-01    1.00000000E+00   1.00000000E+00 
D    1    1.000000
   8.00000000E-01    1.00000000E+00 

3    0
S    6    1.000000
   3.04752490E+03    1.83470000E-03 
   4.57369510E+02    1.40373000E-02 
   1.03948690E+02    6.88426000E-02 
   2.92101550E+01    2.32184400E-01 
   9.28666300E+00    4.67941300E-01 
   3.16392700E+00    3.62312000E-01 
SP   3    1.000000
   7.86827240E+00   -1.19332400E-01   6.89991000E-02 
   1.88128850E+00   -1.60854200E-01   3.16424000E-01 
   5.44249300E-01    1.14345640E+00   7.44308300E-01 
SP   1    1.000000
   1.68714400E-01    1.00000000E+00   1.00000000E+00 
D    1    1.000000
   8.00000000E-01    1.00000000E+00 

4    0
S    3    1.000000
   1.87311370E+01    3.34946000E-02 
   2.82539370E+00    2.34726950E-01 
   6.40121700E-01    8.13757330E-01 
S    1    1.000000
   1.61277800E-01    1.00000000E+00 

5    0
S    3    1.000000
   1.87311370E+01    3.34946000E-02 
   2.82539370E+00    2.34726950E-01 
   6.40121700E-01    8.13757330E-01 
S    1    1.000000
   1.61277800E-01    1.00000000E+00 

6    0
S    3    1.000000
   1.87311370E+01    3.34946000E-02 
   2.82539370E+00    2.34726950E-01 
   6.40121700E-01    8.13757330E-01 
S    1    1.000000
   1.61277800E-01    1.00000000E+00 

[MO]
Sym=X
Ene= 1.990514
Spin=Alpha
Occup=1
     1    3.137628945500e-01
     2    1.375425262260e-01
     3   -4.615632372398e-02
     4    2.146833531063e-01
     5    2.115950845987e-01
     6   -4.196134415219e-01
     7    1.672809675070e-08
     8    1.250828715986e-01
     9    8.868313336702e-02
    10   -2.332652782669e-01
    11    2.702812780725e-08
    12   -8.482334973491e-03
    13    4.294727147061e-02
    14   -7.052916514868e-03
    15   -1.079412890650e-02
    16    4.562575376461e-10
    17   -2.781044609988e-09
    18    9.752525568891e-03
    19   -1.407310992966e-02
    20   -5.085082112946e-02
    21    5.104842605654e-02
    22   -2.600509860321e-09
    23   -3.376472299648e-02
    24   -5.687966021752e-02
    25   -4.856673488524e-04
    26   -5.963746009875e-09
    27    5.345964932579e-03
    28   -9.217188110108e-03
    29   -3.720566911592e-03
    30   -1.716571264531e-03
    31   -7.520420252851e-11
    32    1.503556147483e-10
    33   -1.796959812933e-04
    34    5.364237489101e-03
    35   -5.457911164631e-03
    36   -9.433181362414e-03
    37   -5.457910284743e-03
    38   -9.433180081060e-03
Sym=X
Ene= 1.999039
Spin=Alpha
Occup=1
     1    3.288721512713e-02
     2    3.065554591055e-02
     3    5.571162265403e-02
     4   -2.667296130840e-01
     5    4.190599461243e-01
     6    5.745022182955e-02
     7    7.289797226389e-08
     8   -1.724909961342e-01
     9    2.311085964603e-01
    10    4.649171482556e-02
    11    7.257227937770e-08
    12   -1.953777721492e-02
    13   -6.024388112550e-03
    14    5.548512859126e-03
    15   -1.538108160951e-02
    16    1.327471016335e-08
    17   -5.562220588264e-09
    18    2.882344896305e-02
    19   -1.697016950075e-01
    20   -3.220912105726e-01
    21   -3.240377805267e-02
    22   -1.094143307783e-08
    23   -4.460797196262e-02
    24   -9.083249056742e-02
    25   -1.000098646175e-03
    26   -1.248345734437e-08
    27   -2.983953593664e-02
    28    1.619892957876e-02
    29    1.730587750391e-02
    30   -4.621616120164e-03
    31    1.753856989866e-08
    32   -5.993417427534e-09
    33    1.626717032929e-02
    34    1.719754675767e-02
    35    1.828140474836e-02
    36    2.198967494936e-02
    37    1.828140909081e-02
    38    2.198968177555e-02
Sym=X
Ene= 1.992162
Spin=Alpha
Occup=1
     1   -4.243857107209e-03
     2   -6.359410844070e-03
     3    4.290999387045e-03
     4   -1.596119630791e-02
     5    3.819932421779e-02
     6   -4.169386968290e-02
     7    1.616495878924e-08
     8    9.984975241986e-03
     9    2.026039841733e-02
    10   -1.751230509477e-02
    11    6.437488418572e-08
    12    4.737774063318e-03
    13   -6.832020359630e-03
    14   -4.139052979012e-03
    15   -7.701509159789e-04
    16   -1.214084399676e-08
    17   -3.747449128543e-09
    18   -4.903154514109e-02
    19    2.237528569876e-01
    20   -1.597194339539e-01
    21    3.630761097616e-01
    22    2.241881330900e-08
    23    1.366066050426e-01
    24   -7.914529414307e-02
    25    1.490295186793e-01
    26   -3.134418654043e-07
    27   -1.099882835959e-02
    28    1.773725001820e-02
    29   -9.169345277377e-03
    30   -1.708212868376e-02
    31   -6.231215031441e-08
    32    9.025760871467e-08
    33    3.297579217030e-01
    34    2.311969510629e-01
    35   -3.335935605498e-02
    36   -4.187704134119e-02
    37   -3.335922841094e-02
    38   -4.187680388002e-02
Sym=X
Ene= 1.998368
Spin=Alpha
Occup=1
     1   -1.336185710252e-02
     2    6.860610624191e-04
     3    4.448363236524e-03
     4   -1.632308794731e-02
     5    2.850995984608e-02
     6    2.047556780629e-02
     7    3.505851389561e-02
     8    1.518942163803e-03
     9    1.554594415503e-02
    10    1.017567736072e-02
    11    1.475039400531e-02
    12    4.640687673544e-03
    13   -3.641452897210e-03
    14   -4.857896572460e-03
    15    2.281631334975e-03
    16    2.565838704504e-03
    17   -2.321502636567e-04
    18   -4.705993852246e-02
    19    2.044150091156e-01
    20   -1.161767188083e-01
    21   -1.988172561932e-01
    22   -3.258655494896e-01
    23    1.448116399264e-01
    24   -4.793416044278e-02
    25   -8.250489708904e-02
    26   -1.217260118609e-01
    27   -1.531566726629e-02
    28   -1.144290122118e-03
    29    1.159902584295e-02
    30    5.261439592720e-03
    31    1.101776625080e-02
    32    1.679870940702e-02
    33   -3.372957616183e-02
    34   -4.463570378724e-02
    35    3.290216027457e-01
    36    2.516838418166e-01
    37   -3.441647657598e-02
    38   -4.994732149630e-02
Sym=X
Ene= 1.998368
Spin=Alpha
Occup=1
     1   -1.336184345052e-02
     2    6.860834657614e-04
     3    4.448363816848e-03
     4   -1.632307194543e-02
     5    2.850996169189e-02
     6    2.047555175665e-02
     7   -3.505853504976e-02
     8    1.518946816890e-03
     9    1.554594985916e-02
    10    1.017563054670e-02
    11   -1.475040877304e-02
    12    4.640673318936e-03
    13   -3.641443918300e-03
    14   -4.857886321067e-03
    15    2.281629377828e-03
    16   -2.565847507608e-03
    17    2.321481426773e-04
    18   -4.705993907252e-02
    19    2.044152060425e-01
    20   -1.161766964111e-01
    21   -1.988172595491e-01
    22    3.258655967478e-01
    23    1.448112886153e-01
    24   -4.793421207090e-02
    25   -8.250452256360e-02
    26    1.217262076502e-01
    27   -1.531560846242e-02
    28   -1.144270041666e-03
    29    1.159892156407e-02
    30    5.261430131528e-03
    31   -1.101782182765e-02
    32   -1.679867865891e-02
    33   -3.372963951990e-02
    34   -4.463580908924e-02
    35   -3.441636602462e-02
    36   -4.994709479191e-02
    37    3.290215556784e-01
    38    2.516839697720e-01
Sym=X
Ene= 1.999851
Spin=Alpha
Occup=1
     1   -4.708162366725e-03
     2   -3.454259347393e-03
     3    1.009517349868e+00
     4   -2.269645213359e-02
     5   -9.849997660083e-04
     6   -1.109559398927e-03
     7    8.034148757940e-11
     8   -2.983751002451e-02
     9   -5.570785258798e-03
    10   -3.310654607972e-03
    11    6.566172379453e-11
    12   -8.387211042744e-03
    13   -9.105905507681e-03
    14   -9.660955516397e-03
    15   -1.113668517535e-04
    16   -1.274247966250e-12
    17   -3.896034438444e-12
    18    1.760328634283e-03
    19    1.190509122480e-03
    20   -6.499270227559e-03
    21   -6.002125606769e-04
    22   -1.372353948405e-11
    23   -1.290404628127e-02
    24   -1.136724143947e-02
    25   -1.121972829359e-03
    26   -1.962508182570e-11
    27   -1.169392622812e-03
    28    1.161240604446e-04
    29    1.009969887644e-04
    30   -8.977312629337e-05
    31   -1.190142338278e-13
    32   -7.786468908943e-14
    33    7.943817293058e-04
    34    1.363875964268e-03
    35    8.191960465110e-04
    36    1.335298326128e-03
    37    8.191960177712e-04
    38    1.335298383630e-03
Sym=X
Ene= 1.999510
Spin=Alpha
Occup=1
     1   -1.037075568756e-03
     2   -1.755429901225e-03
     3    1.868193676637e-03
     4   -1.770719088608e-03
     5    1.298218786275e-02
     6    1.007684162875e-03
     7   -1.418570755014e-11
     8   -8.535064630476e-03
     9    1.684314478344e-02
    10    7.024055261034e-04
    11   -1.786127314915e-11
    12   -3.237376458507e-04
    13    6.096653677256e-04
    14    6.013670120841e-04
    15   -1.261560427149e-04
    16    7.020207288057e-13
    17    3.463426440218e-13
    18    1.007551323013e+00
    19   -2.300794293690e-04
    20   -3.512152236413e-04
    21    1.607750884728e-04
    22    4.408964315687e-10
    23   -5.769031663995e-03
    24   -2.194285264338e-03
    25   -2.402146627386e-04
    26    5.239650874361e-10
    27   -7.974472240464e-03
    28   -8.556632229617e-03
    29   -8.569201055446e-03
    30    8.126323428662e-05
    31    2.963320326141e-12
    32   -1.891374900875e-12
    33   -1.119171994483e-02
    34   -1.948264008484e-02
    35   -1.134890971683e-02
    36   -1.928883155752e-02
    37   -1.134890963913e-02
    38   -1.928883381783e-02
Sym=X
Ene= 1.983777
Spin=Alpha
Occup=1
     1   -7.075965815203e-02
     2   -4.526982056374e-02
     3   -1.074538711905e-01
     4    3.738698599818e-01
     5    2.355446234094e-01
     6    3.835678306436e-01
     7   -2.061920010335e-07
     8    5.579892716980e-01
     9    1.472543693144e-01
    10    2.770217993193e-01
    11   -2.576372280569e-07
    12   -2.004912144360e-03
    13   -2.455989134649e-02
    14   -4.459905660705e-03
    15   -2.542796211678e-02
    16    3.048884850122e-09
    17    7.077563949212e-09
    18    1.575221146072e-02
    19   -1.353002704926e-02
    20   -7.000261656444e-02
    21   -5.542647909909e-02
    22    3.217657524544e-08
    23   -1.033995408811e-01
    24   -9.608273208934e-02
    25   -4.740038609658e-02
    26    5.531185714582e-08
    27   -3.928894269032e-03
    28   -4.818030998680e-03
    29   -5.495668035252e-03
    30   -2.248463452003e-03
    31    9.596341934484e-10
    32   -5.327066222718e-10
    33    6.384426843247e-03
    34    7.466057438810e-03
    35   -2.677328667990e-04
    36    7.819562141396e-04
    37   -2.677479337816e-04
    38    7.819328335674e-04
Sym=X
Ene= 1.964506
Spin=Alpha
Occup=1
     1   -2.266142982309e-08
     2   -4.330734423028e-08
     3   -6.758699836057e-08
     4    2.167328233648e-07
     5   -4.854780744167e-09
     6    2.055691923178e-07
     7    6.633684103811e-01
     8    3.496464298188e-07
     9   -4.057626197327e-08
    10    4.088553670792e-08
    11    5.108165148234e-01
    12   -3.584796057166e-08
    13   -6.626584652984e-08
    14   -3.316800996652e-08
    15   -4.520365321784e-09
    16   -1.580011331224e-02
    17   -2.923351863152e-02
    18    7.710743171635e-09
    19   -2.682849748423e-08
    20   -5.493039638087e-08
    21   -2.402649131652e-08
    22   -8.331781191491e-02
    23   -6.926591914689e-08
    24   -6.499111174321e-08
    25    7.171296557302e-09
    26   -5.190654409925e-02
    27    2.471323907251e-09
    28   -7.038654292480e-09
    29   -9.883193859044e-09
    30    1.799929300057e-09
    31   -9.305551666232e-04
    32   -3.581947714029e-04
    33   -3.986275203837e-09
    34   -1.020340377597e-08
    35   -5.996026448200e-03
    36    2.284029029866e-03
    37    5.996028681831e-03
    38   -2.284022582387e-03
Sym=X
Ene= 0.001759
Spin=Alpha
Occup=0
     1   -9.810131834467e-01
     2    2.040796507768e+00
     3    2.063190821568e-02
     4    1.155135804412e-01
     5    4.647258990920e-02
     6   -1.149580299656e-01
     7   -7.958281776228e-11
     8   -5.386966948198e-01
     9   -5.207242493578e-01
    10    1.898544337033e-01
    11   -8.385863033710e-11
    12    6.706182721297e-02
    13    1.367160082181e-01
    14    2.496036331619e-02
    15   -4.421908459865e-02
    16   -2.712365324190e-13
    17    9.156923553490e-12
    18    2.460819626989e-02
    19    1.614057749608e-01
    20   -1.200676213985e-02
    21   -5.870324924918e-02
    22    1.058625198902e-09
    23   -6.732487146389e-01
    24   -5.775562470429e-01
    25    3.675735440085e-01
    26   -9.453826807745e-10
    27   -2.879235398637e-02
    28    8.204017228918e-03
    29    2.028971888472e-03
    30   -1.102627631851e-02
    31   -2.609465712989e-11
    32   -4.236108863515e-11
    33   -2.410081872001e-02
    34   -2.122387439923e-01
    35    8.879399593803e-02
    36    5.520544025117e-03
    37    8.879399110390e-02
    38    5.520548912065e-03
Sym=X
Ene= 0.001667
Spin=Alpha
Occup=0
     1    1.422334141207e-06
     2    2.709389626917e-07
     3   -3.189629450167e-07
     4   -5.772388422454e-06
     5   -2.618053177360e-08
     6   -3.074729792311e-06
     7    9.203305911060e-01
     8    1.540710519862e-05
     9   -5.092252487060e-06
    10    4.257302722040e-06
    11   -1.188711506239e+00
    12   -1.505102139001e-06
    13   -2.241500242273e-06
    14   -1.587810529978e-06
    15    1.739312138612e-06
    16   -2.024837869879e-01
    17   -6.578120642144e-02
    18    1.958887226105e-07
    19    1.663392369308e-06
    20   -9.171555786813e-07
    21   -3.534514352632e-08
    22   -6.251912512044e-03
    23   -1.035109835669e-05
    24   -4.669361378900e-06
    25   -2.573369101044e-06
    26    6.307245409721e-01
    27   -7.458434393963e-07
    28    1.067881292713e-07
    29    1.298724257668e-07
    30    2.663832836415e-08
    31   -8.048206959978e-03
    32   -1.287511549374e-02
    33    9.400168237770e-07
    34    1.544062820504e-06
    35    9.791658946564e-02
    36    2.099871174409e-01
    37   -9.791579404652e-02
    38   -2.099862853193e-01
Sym=X
Ene= 0.001114
Spin=Alpha
Occup=0
     1   -5.450963920256e-01
     2   -2.881779416557e-01
     3   -8.131266100640e-03
     4    5.265021086764e-01
     5    1.238975134224e-01
     6    7.778375696125e-01
     7    4.062870243396e-06
     8   -9.485043218883e-01
     9    4.335193953680e-01
    10   -1.376562030216e+00
    11   -5.264118364017e-06
    12    1.295734594536e-01
    13    2.434596436186e-01
    14   -5.212063902270e-04
    15   -3.892772842599e-01
    16   -1.304266787797e-06
    17   -3.818662823097e-07
    18   -2.121009779287e-02
    19   -1.811724576059e-01
    20    3.115130330708e-02
    21    8.764396183032e-03
    22   -5.726656415311e-08
    23    8.216963582743e-01
    24    4.046056065073e-01
    25    5.945273115921e-01
    26    2.657066614216e-06
    27    6.129819085842e-02
    28   -1.186602764403e-02
    29   -2.268665205145e-02
    30   -6.980018464712e-03
    31   -9.301330132397e-08
    32   -5.321553807388e-08
    33   -1.427058358791e-01
    34   -2.397729141732e-01
    35    2.896279504988e-03
    36    5.541410386102e-02
    37    2.895459278067e-03
    38    5.541236505451e-02
Sym=X
Ene= 0.000073
Spin=Alpha
Occup=0
     1    3.628318909131e-01
     2    3.471243184914e-01
     3    2.029521389078e-01
     4    1.700496556185e+00
     5   -4.636039683534e-01
     6   -2.335469381550e-01
     7    1.907040873253e-06
     8   -5.886012281161e+00
     9    2.214258846868e+00
    10    8.544813966675e-01
    11   -2.567743667505e-06
    12    1.936812235133e-01
    13    7.503743216436e-01
    14    9.683087813880e-01
    15   -9.656159086965e-02
    16    7.180935672043e-07
    17    3.562442782368e-07
    18   -5.663082024728e-02
    19   -3.579273958270e-01
    20    5.882564334814e-01
    21    2.988309957374e-02
    22    8.340818049673e-08
    23    3.842565426220e+00
    24    1.633179351839e+00
    25   -2.471447554530e-02
    26    1.710212507452e-06
    27    3.252679300376e-01
    28   -3.691146642633e-02
    29   -2.647538836402e-02
    30    1.572156582920e-02
    31    1.479555782966e-07
    32   -4.470529578937e-08
    33   -1.796596461335e-01
    34   -2.629571668207e-01
    35   -2.321937330292e-01
    36   -3.726589558706e-01
    37   -2.321942866365e-01
    38   -3.726601515195e-01
Sym=X
Ene= 0.000036
Spin=Alpha
Occup=0
     1    2.396153966874e-01
     2    6.286922700667e-01
     3    4.540514215676e-02
     4    4.068450352517e-01
     5    6.185496692141e-01
     6   -1.998562600730e-01
     7    2.855065485848e-07
     8   -1.128603546700e+00
     9   -1.002821332550e+00
    10    7.153350477471e-01
    11   -4.638486012454e-07
    12   -3.266637915984e-01
    13    4.149523981459e-01
    14    5.286886445076e-01
    15   -3.653074605006e-01
    16    7.412985645419e-07
    17    1.861659889656e-07
    18   -6.941704940017e-03
    19    1.571780952115e-01
    20    1.452785721888e-01
    21   -5.051142194498e-02
    22    6.497322207431e-08
    23   -4.300231054376e-01
    24   -1.883568723598e-01
    25   -3.102380476173e-01
    26    4.941426980378e-07
    27    1.162568569547e-01
    28   -6.895966461004e-02
    29   -4.281739546029e-02
    30   -2.926435679882e-02
    31    1.118168966021e-07
    32   -1.277931807269e-08
    33    8.429548104427e-02
    34    1.216318289594e-01
    35    5.752380037428e-04
    36   -5.639869696813e-02
    37    5.750721309796e-04
    38   -5.639907671713e-02
Sym=X
Ene= 0.000000
Spin=Alpha
Occup=0
     1   -1.563451840757e-01
     2    5.301678235833e-01
     3    4.730907465289e-01
     4   -1.948745045969e-01
     5   -1.154727025320e-01
     6   -5.488217656383e-02
     7    2.903330887583e-08
     8   -3.875933846911e+00
     9    2.073212362460e-01
    10    1.590802740525e-01
    11    4.488260033296e-10
    12    1.726611147646e+00
    13    1.586840095345e+00
    14    1.529248822161e+00
    15    3.332365454762e-02
    16   -2.821430203748e-09
    17   -1.564470834115e-09
    18    2.953572624982e-02
    19   -1.041992432255e-01
    20   -1.416126853112e-01
    21   -4.155177083664e-02
    22   -2.533025337189e-09
    23    5.518673467358e-01
    24    2.721280488156e-01
    25    1.427085864348e-01
    26    6.112999231775e-09
    27   -2.548566056843e-01
    28    1.374882310732e-01
    29    1.383459344697e-01
    30   -5.299937090151e-02
    31   -1.202497066503e-10
    32   -1.518534281251e-10
    33   -8.753782155115e-02
    34   -3.317320080007e-02
    35   -6.114073801216e-02
    36    3.932777267481e-02
    37   -6.114073919929e-02
    38    3.932776662244e-02
Sym=X
Ene= 0.000001
Spin=Alpha
Occup=0
     1    6.473885428232e-01
     2    4.018271893531e-01
     3    2.676222231546e-02
     4    6.320498931500e-01
     5    3.073513132714e-01
     6    1.935912777657e-01
     7    2.600615282065e-07
     8   -1.552224470241e+00
     9   -5.344759836587e-01
    10    1.793039625852e-01
    11   -3.607704880557e-07
    12    1.989692280723e-01
    13    4.505637829556e-02
    14    2.217146076198e-01
    15    1.006757800030e+00
    16   -5.930258523286e-08
    17   -1.904982356477e-08
    18   -1.215546253197e-02
    19   -1.789868938600e-01
    20   -9.557265017763e-02
    21    3.252706718305e-02
    22   -2.594946116804e-10
    23    2.860005395804e-01
    24    8.956653981927e-02
    25    3.937298656239e-01
    26    1.869934522126e-07
    27   -3.019865303809e-02
    28    3.047652231209e-02
    29   -2.361734018291e-02
    30    9.813657317274e-02
    31   -2.323894961009e-09
    32   -3.792914706335e-09
    33   -8.641180386994e-02
    34   -2.439877058828e-01
    35    2.247587048889e-02
    36    5.745432405385e-02
    37    2.247581139318e-02
    38    5.745420191652e-02
Sym=X
Ene= 0.000000
Spin=Alpha
Occup=0
     1   -7.482953172372e-07
     2   -9.223517317345e-07
     3   -2.454438147245e-07
     4   -1.851539420503e-06
     5    6.188319708501e-08
     6    6.680373279016e-07
     7    2.409357168874e-01
     8    6.534362239071e-06
     9   -1.393460656161e-06
    10   -1.910106157304e-06
    11   -4.452923965080e-01
    12    8.736711743780e-08
    13   -9.858933367418e-07
    14   -1.382724475085e-06
    15    2.233618868041e-07
    16    1.046333031148e+00
    17    4.157921779776e-03
    18    5.571093133283e-08
    19    1.854493675962e-07
    20   -7.016187112923e-07
    21    9.662012110774e-09
    22    8.341223305979e-02
    23   -3.337945641220e-06
    24   -1.396278282757e-06
    25    4.696810943102e-07
    26    5.868855732753e-01
    27   -3.972891989499e-07
    28    8.386336232613e-08
    29    5.008133345580e-08
    30    2.625675541963e-09
    31    1.501042160087e-01
    32   -7.766062046630e-03
    33    7.078759925323e-08
    34    9.376441453325e-08
    35    9.118199898277e-02
    36    2.452414767269e-01
    37   -9.118151832029e-02
    38   -2.452405904046e-01
Sym=X
Ene= 0.000000
Spin=Alpha
Occup=0
     1   -2.602260763328e-07
     2   -3.053233116122e-07
     3   -1.040527428304e-07
     4   -8.293116103051e-07
     5    1.133247019449e-07
     6    2.101847181815e-07
     7    8.217530697299e-02
     8    2.887315151027e-06
     9   -8.069382497722e-07
    10   -6.488475143725e-07
    11   -7.048625429216e-02
    12   -1.802141527041e-08
    13   -4.098180359479e-07
    14   -5.526339749297e-07
    15    8.248564129382e-08
    16   -8.566584818225e-03
    17    1.000295828634e+00
    18    2.599941936287e-08
    19    1.228237899415e-07
    20   -2.993476108198e-07
    21   -3.368281865827e-09
    22    2.223637210688e-02
    23   -1.646323262628e-06
    24   -6.941132239348e-07
    25    1.191490600914e-07
    26   -8.089893540446e-04
    27   -1.690115852453e-07
    28    2.941761477641e-08
    29    1.866248348588e-08
    30   -2.397399080197e-09
    31    1.612961299114e-02
    32   -3.031704719745e-02
    33    5.631310980588e-08
    34    8.038528064855e-08
    35    2.980446868840e-02
    36   -5.655347003962e-02
    37   -2.980425002886e-02
    38    5.655384775695e-02
Sym=X
Ene= 0.000002
Spin=Alpha
Occup=0
     1    6.860594580342e-01
     2    4.690334398959e-01
     3   -1.058042516031e-02
     4    2.731403071403e-01
     5    2.204098148684e-01
     6   -1.818765110348e-01
     7    3.786369937283e-07
     8   -4.532495637305e-01
     9   -1.030365928724e+00
    10    8.001110388886e-01
    11   -4.976271653328e-07
    12    1.037289254893e+00
    13   -9.633345385524e-01
    14    2.893998749324e-02
    15   -6.448262498801e-02
    16   -8.432012270547e-08
    17   -2.734915686070e-08
    18    6.222885640040e-03
    19   -3.154971101953e-01
    20   -4.445762148886e-01
    21   -1.066712198557e-01
    22   -2.046651002374e-09
    23   -3.524743878732e-01
    24   -9.585007636351e-02
    25   -4.116668338977e-01
    26    2.625938003503e-07
    27   -1.982502702220e-01
    28    2.664511416898e-02
    29    4.880266041409e-02
    30   -1.092467213524e-01
    31   -3.379207454215e-09
    32   -5.360558700320e-09
    33    7.870365257639e-02
    34    1.955497314203e-01
    35   -1.141499226628e-02
    36   -8.339893493132e-02
    37   -1.141507401613e-02
    38   -8.339910935778e-02

======= END OF MOLDEN-FORMATTED INPUT FILE =======


        *************************************************************
        *                                                           *
        *  Thank you very much for using Q-Chem.  Have a nice day.  *
        *                                                           *
        *************************************************************


0 sent ACK to 0 
now end server 0 ... 
